<?xml version="1.0"?>
<VTKFile type="UnstructuredGrid"  version="0.1"  >
<UnstructuredGrid>
<Piece  NumberOfPoints="1861" NumberOfCells="3600">
<Points>
<DataArray  type="Float64"  NumberOfComponents="3"  format="ascii">0 0 0  0.03333333333333333 0 0  0.06666666666666667 0 0  0.1 0 0  0.1333333333333333 0 0  0.1666666666666667 0 0  0.2 0 0  0.2333333333333333 0 0  0.2666666666666667 0 0  0.3 0 0  0.3333333333333333 0 0  0.3666666666666666 0 0  0.4 0 0  0.4333333333333333 0 0  0.4666666666666667 0 0  0.5 0 0  0.5333333333333333 0 0  0.5666666666666667 0 0  0.6 0 0  0.6333333333333333 0 0  0.6666666666666666 0 0  0.7 0 0  0.7333333333333333 0 0  0.7666666666666667 0 0  0.8 0 0  0.8333333333333334 0 0  0.8666666666666667 0 0  0.9 0 0  0.9333333333333333 0 0  0.9666666666666667 0 0  1 0 0  0 0.03333333333333333 0  0.03333333333333333 0.03333333333333333 0  0.06666666666666667 0.03333333333333333 0  0.1 0.03333333333333333 0  0.1333333333333333 0.03333333333333333 0  0.1666666666666667 0.03333333333333333 0  0.2 0.03333333333333333 0  0.2333333333333333 0.03333333333333333 0  0.2666666666666667 0.03333333333333333 0  0.3 0.03333333333333333 0  0.3333333333333333 0.03333333333333333 0  0.3666666666666666 0.03333333333333333 0  0.4 0.03333333333333333 0  0.4333333333333333 0.03333333333333333 0  0.4666666666666667 0.03333333333333333 0  0.5 0.03333333333333333 0  0.5333333333333333 0.03333333333333333 0  0.5666666666666667 0.03333333333333333 0  0.6 0.03333333333333333 0  0.6333333333333333 0.03333333333333333 0  0.6666666666666666 0.03333333333333333 0  0.7 0.03333333333333333 0  0.7333333333333333 0.03333333333333333 0  0.7666666666666667 0.03333333333333333 0  0.8 0.03333333333333333 0  0.8333333333333334 0.03333333333333333 0  0.8666666666666667 0.03333333333333333 0  0.9 0.03333333333333333 0  0.9333333333333333 0.03333333333333333 0  0.9666666666666667 0.03333333333333333 0  1 0.03333333333333333 0  0 0.06666666666666667 0  0.03333333333333333 0.06666666666666667 0  0.06666666666666667 0.06666666666666667 0  0.1 0.06666666666666667 0  0.1333333333333333 0.06666666666666667 0  0.1666666666666667 0.06666666666666667 0  0.2 0.06666666666666667 0  0.2333333333333333 0.06666666666666667 0  0.2666666666666667 0.06666666666666667 0  0.3 0.06666666666666667 0  0.3333333333333333 0.06666666666666667 0  0.3666666666666666 0.06666666666666667 0  0.4 0.06666666666666667 0  0.4333333333333333 0.06666666666666667 0  0.4666666666666667 0.06666666666666667 0  0.5 0.06666666666666667 0  0.5333333333333333 0.06666666666666667 0  0.5666666666666667 0.06666666666666667 0  0.6 0.06666666666666667 0  0.6333333333333333 0.06666666666666667 0  0.6666666666666666 0.06666666666666667 0  0.7 0.06666666666666667 0  0.7333333333333333 0.06666666666666667 0  0.7666666666666667 0.06666666666666667 0  0.8 0.06666666666666667 0  0.8333333333333334 0.06666666666666667 0  0.8666666666666667 0.06666666666666667 0  0.9 0.06666666666666667 0  0.9333333333333333 0.06666666666666667 0  0.9666666666666667 0.06666666666666667 0  1 0.06666666666666667 0  0 0.1 0  0.03333333333333333 0.1 0  0.06666666666666667 0.1 0  0.1 0.1 0  0.1333333333333333 0.1 0  0.1666666666666667 0.1 0  0.2 0.1 0  0.2333333333333333 0.1 0  0.2666666666666667 0.1 0  0.3 0.1 0  0.3333333333333333 0.1 0  0.3666666666666666 0.1 0  0.4 0.1 0  0.4333333333333333 0.1 0  0.4666666666666667 0.1 0  0.5 0.1 0  0.5333333333333333 0.1 0  0.5666666666666667 0.1 0  0.6 0.1 0  0.6333333333333333 0.1 0  0.6666666666666666 0.1 0  0.7 0.1 0  0.7333333333333333 0.1 0  0.7666666666666667 0.1 0  0.8 0.1 0  0.8333333333333334 0.1 0  0.8666666666666667 0.1 0  0.9 0.1 0  0.9333333333333333 0.1 0  0.9666666666666667 0.1 0  1 0.1 0  0 0.1333333333333333 0  0.03333333333333333 0.1333333333333333 0  0.06666666666666667 0.1333333333333333 0  0.1 0.1333333333333333 0  0.1333333333333333 0.1333333333333333 0  0.1666666666666667 0.1333333333333333 0  0.2 0.1333333333333333 0  0.2333333333333333 0.1333333333333333 0  0.2666666666666667 0.1333333333333333 0  0.3 0.1333333333333333 0  0.3333333333333333 0.1333333333333333 0  0.3666666666666666 0.1333333333333333 0  0.4 0.1333333333333333 0  0.4333333333333333 0.1333333333333333 0  0.4666666666666667 0.1333333333333333 0  0.5 0.1333333333333333 0  0.5333333333333333 0.1333333333333333 0  0.5666666666666667 0.1333333333333333 0  0.6 0.1333333333333333 0  0.6333333333333333 0.1333333333333333 0  0.6666666666666666 0.1333333333333333 0  0.7 0.1333333333333333 0  0.7333333333333333 0.1333333333333333 0  0.7666666666666667 0.1333333333333333 0  0.8 0.1333333333333333 0  0.8333333333333334 0.1333333333333333 0  0.8666666666666667 0.1333333333333333 0  0.9 0.1333333333333333 0  0.9333333333333333 0.1333333333333333 0  0.9666666666666667 0.1333333333333333 0  1 0.1333333333333333 0  0 0.1666666666666667 0  0.03333333333333333 0.1666666666666667 0  0.06666666666666667 0.1666666666666667 0  0.1 0.1666666666666667 0  0.1333333333333333 0.1666666666666667 0  0.1666666666666667 0.1666666666666667 0  0.2 0.1666666666666667 0  0.2333333333333333 0.1666666666666667 0  0.2666666666666667 0.1666666666666667 0  0.3 0.1666666666666667 0  0.3333333333333333 0.1666666666666667 0  0.3666666666666666 0.1666666666666667 0  0.4 0.1666666666666667 0  0.4333333333333333 0.1666666666666667 0  0.4666666666666667 0.1666666666666667 0  0.5 0.1666666666666667 0  0.5333333333333333 0.1666666666666667 0  0.5666666666666667 0.1666666666666667 0  0.6 0.1666666666666667 0  0.6333333333333333 0.1666666666666667 0  0.6666666666666666 0.1666666666666667 0  0.7 0.1666666666666667 0  0.7333333333333333 0.1666666666666667 0  0.7666666666666667 0.1666666666666667 0  0.8 0.1666666666666667 0  0.8333333333333334 0.1666666666666667 0  0.8666666666666667 0.1666666666666667 0  0.9 0.1666666666666667 0  0.9333333333333333 0.1666666666666667 0  0.9666666666666667 0.1666666666666667 0  1 0.1666666666666667 0  0 0.2 0  0.03333333333333333 0.2 0  0.06666666666666667 0.2 0  0.1 0.2 0  0.1333333333333333 0.2 0  0.1666666666666667 0.2 0  0.2 0.2 0  0.2333333333333333 0.2 0  0.2666666666666667 0.2 0  0.3 0.2 0  0.3333333333333333 0.2 0  0.3666666666666666 0.2 0  0.4 0.2 0  0.4333333333333333 0.2 0  0.4666666666666667 0.2 0  0.5 0.2 0  0.5333333333333333 0.2 0  0.5666666666666667 0.2 0  0.6 0.2 0  0.6333333333333333 0.2 0  0.6666666666666666 0.2 0  0.7 0.2 0  0.7333333333333333 0.2 0  0.7666666666666667 0.2 0  0.8 0.2 0  0.8333333333333334 0.2 0  0.8666666666666667 0.2 0  0.9 0.2 0  0.9333333333333333 0.2 0  0.9666666666666667 0.2 0  1 0.2 0  0 0.2333333333333333 0  0.03333333333333333 0.2333333333333333 0  0.06666666666666667 0.2333333333333333 0  0.1 0.2333333333333333 0  0.1333333333333333 0.2333333333333333 0  0.1666666666666667 0.2333333333333333 0  0.2 0.2333333333333333 0  0.2333333333333333 0.2333333333333333 0  0.2666666666666667 0.2333333333333333 0  0.3 0.2333333333333333 0  0.3333333333333333 0.2333333333333333 0  0.3666666666666666 0.2333333333333333 0  0.4 0.2333333333333333 0  0.4333333333333333 0.2333333333333333 0  0.4666666666666667 0.2333333333333333 0  0.5 0.2333333333333333 0  0.5333333333333333 0.2333333333333333 0  0.5666666666666667 0.2333333333333333 0  0.6 0.2333333333333333 0  0.6333333333333333 0.2333333333333333 0  0.6666666666666666 0.2333333333333333 0  0.7 0.2333333333333333 0  0.7333333333333333 0.2333333333333333 0  0.7666666666666667 0.2333333333333333 0  0.8 0.2333333333333333 0  0.8333333333333334 0.2333333333333333 0  0.8666666666666667 0.2333333333333333 0  0.9 0.2333333333333333 0  0.9333333333333333 0.2333333333333333 0  0.9666666666666667 0.2333333333333333 0  1 0.2333333333333333 0  0 0.2666666666666667 0  0.03333333333333333 0.2666666666666667 0  0.06666666666666667 0.2666666666666667 0  0.1 0.2666666666666667 0  0.1333333333333333 0.2666666666666667 0  0.1666666666666667 0.2666666666666667 0  0.2 0.2666666666666667 0  0.2333333333333333 0.2666666666666667 0  0.2666666666666667 0.2666666666666667 0  0.3 0.2666666666666667 0  0.3333333333333333 0.2666666666666667 0  0.3666666666666666 0.2666666666666667 0  0.4 0.2666666666666667 0  0.4333333333333333 0.2666666666666667 0  0.4666666666666667 0.2666666666666667 0  0.5 0.2666666666666667 0  0.5333333333333333 0.2666666666666667 0  0.5666666666666667 0.2666666666666667 0  0.6 0.2666666666666667 0  0.6333333333333333 0.2666666666666667 0  0.6666666666666666 0.2666666666666667 0  0.7 0.2666666666666667 0  0.7333333333333333 0.2666666666666667 0  0.7666666666666667 0.2666666666666667 0  0.8 0.2666666666666667 0  0.8333333333333334 0.2666666666666667 0  0.8666666666666667 0.2666666666666667 0  0.9 0.2666666666666667 0  0.9333333333333333 0.2666666666666667 0  0.9666666666666667 0.2666666666666667 0  1 0.2666666666666667 0  0 0.3 0  0.03333333333333333 0.3 0  0.06666666666666667 0.3 0  0.1 0.3 0  0.1333333333333333 0.3 0  0.1666666666666667 0.3 0  0.2 0.3 0  0.2333333333333333 0.3 0  0.2666666666666667 0.3 0  0.3 0.3 0  0.3333333333333333 0.3 0  0.3666666666666666 0.3 0  0.4 0.3 0  0.4333333333333333 0.3 0  0.4666666666666667 0.3 0  0.5 0.3 0  0.5333333333333333 0.3 0  0.5666666666666667 0.3 0  0.6 0.3 0  0.6333333333333333 0.3 0  0.6666666666666666 0.3 0  0.7 0.3 0  0.7333333333333333 0.3 0  0.7666666666666667 0.3 0  0.8 0.3 0  0.8333333333333334 0.3 0  0.8666666666666667 0.3 0  0.9 0.3 0  0.9333333333333333 0.3 0  0.9666666666666667 0.3 0  1 0.3 0  0 0.3333333333333333 0  0.03333333333333333 0.3333333333333333 0  0.06666666666666667 0.3333333333333333 0  0.1 0.3333333333333333 0  0.1333333333333333 0.3333333333333333 0  0.1666666666666667 0.3333333333333333 0  0.2 0.3333333333333333 0  0.2333333333333333 0.3333333333333333 0  0.2666666666666667 0.3333333333333333 0  0.3 0.3333333333333333 0  0.3333333333333333 0.3333333333333333 0  0.3666666666666666 0.3333333333333333 0  0.4 0.3333333333333333 0  0.4333333333333333 0.3333333333333333 0  0.4666666666666667 0.3333333333333333 0  0.5 0.3333333333333333 0  0.5333333333333333 0.3333333333333
[...]
<CellData  Scalars="f_20-1"> 
<DataArray  type="Float64"  Name="f_20-1"  format="ascii">9.6246732217142615e+05   9.7459372134051076e+05   9.5032242556747003e+05   9.6243038992731902e+05   9.2618298602603830e+05   9.3821678098696715e+05   9.1409338945903035e+05   9.2607154588846955e+05   8.9023354671823350e+05   9.0209913496095943e+05   8.7827406052886334e+05   8.9004593657317082e+05   8.5484758072285075e+05   8.6646736189969582e+05   8.4309495213767537e+05   8.5458195675677771e+05   8.2025869139199913e+05   8.3155386486155330e+05   8.0879154093108024e+05   8.1991449625490117e+05   7.8670143804990174e+05   7.9759474221481627e+05   7.7559854724679817e+05   7.8628147964248527e+05   7.5440112382727745e+05   7.6482198010608996e+05   7.4373746344246680e+05   7.5391398454796406e+05   7.2355659209201369e+05   7.3344855022426043e+05   7.1339685398788727e+05   7.2301868176345504e+05   6.9431721193800110e+05   7.0364662682520552e+05   6.8470743735408341e+05   6.9375346212989034e+05   6.6675806843298627e+05   6.7552195038870513e+05   6.5771705544092425e+05   6.6620044643080130e+05   6.4085959781654354e+05   6.4909028512952616e+05   6.3237247425744124e+05   6.4034348467422021e+05   6.1649769327541476e+05   6.2426287549866643e+05   6.0851366199710639e+05   6.1605726196426968e+05   5.9344712400364375e+05   6.0084539300187957e+05   5.8588194302087696e+05   5.9311130173574260e+05   5.7139671355599852e+05   5.7855015856993361e+05   5.6413888128222676e+05   5.7118674782292114e+05   5.4997182920752768e+05   5.5701746029901050e+05   5.4289069954637368e+05   5.4990043934520846e+05   5.2875967047098838e+05   5.3584080013129092e+05   5.2171403937978955e+05   5.2883106033217208e+05   5.0733478612592403e+05   5.1459261839770887e+05   5.0018134111340914e+05   5.0754475185786700e+05   4.8528437568509410e+05   4.9284955666474125e+05   4.7788610668941354e+05   4.8562019795186166e+05   4.6223380642352736e+05   4.7021783769759000e+05   4.5446862420396297e+05   4.6267423773355421e+05   4.3787190189595253e+05   4.4635902544971072e+05   4.2964121458777186e+05   4.3838801503718883e+05   4.1197343129631947e+05   4.2101444428198587e+05   4.0320954934648005e+05   4.1253105329746974e+05   3.8441428781120642e+05   3.9402406238774752e+05   3.7508487293090048e+05   3.8497803761836153e+05   3.5517490767995577e+05   3.6533464577582083e+05   3.4528294955554290e+05   3.5571281800765800e+05   3.2433037597001879e+05   3.3499403634579532e+05   3.1390951969987003e+05   3.2481751524859073e+05   2.9203006177494297e+05   3.0313295256836194e+05   2.8113675761940290e+05   2.9245002018173947e+05   2.5847280846225118e+05   2.6993995891295868e+05   2.4717763500265981e+05   2.5881700359885284e+05   2.2388391916229486e+05   2.3563654773685377e+05   2.1226413799587748e+05   2.2414954312799117e+05   1.8849795319894064e+05   2.0045743937740271e+05   1.7663236496698961e+05   1.8868556334373966e+05   1.5254851392395434e+05   1.6463811047987358e+05   1.4051471897403672e+05   1.5265995406136767e+05   1.1626417781185347e+05   1.2840907440464414e+05   1.0413777865390830e+05   1.1630111005590879e+05   9.6239356342857704e+05   9.7455692447037995e+05   9.5013817189286894e+05   9.6228345370926452e+05   9.2596038184494409e+05   9.3795823828471033e+05   9.1368470501718251e+05   9.2562786076912167e+05   8.8985864364839857e+05   9.0161433620552532e+05   8.7763480837138940e+05   8.8929790134683647e+05   8.5431646187885210e+05   8.6574986139456416e+05   8.4221932201815129e+05   8.5352050064052956e+05   8.1956991223182529e+05   8.3059900998451165e+05   8.0767913226632378e+05   8.1853493975358864e+05   7.8586022414113348e+05   7.9640541853702080e+05   7.7426131149500946e+05   7.8459213911325450e+05   7.5342429777720547e+05   7.6341597194464691e+05   7.4220736247485201e+05   7.5194661278198496e+05   7.2247684639226343e+05   7.3186591974910279e+05   7.1173165223738574e+05   7.2083793660401856e+05   6.9318464188159828e+05   7.0195412089292938e+05   6.8299118617805117e+05   6.9146078621414641e+05   6.6563719922141836e+05   6.7381111792867165e+05   6.5605304415950482e+05   6.6392813176154671e+05   6.3982194864202896e+05   6.4746804331001686e+05   6.3086995617257687e+05   6.3823873240877630e+05   6.1561226270346204e+05   6.2283713295243843e+05   6.0727312830186682e+05   6.1426163865439862e+05   5.9277214514655154e+05   5.9971104089937662e+05   5.8498403919487959e+05   5.9174331336190226e+05   5.7097479739768594e+05   5.7777982556152181e+05   5.6363909246884123e+05   5.7033220678558794e+05   5.4982839574274933e+05   5.5665793296372332e+05   5.4281848272164946e+05   5.4961004967196693e+05   5.2890310393349559e+05   5.3591301695260860e+05   5.2207356671166921e+05   5.2912145000087109e+05   5.0775670228196646e+05   5.1509240720768634e+05   5.0095167411841551e+05   5.0839929289065476e+05   4.8595935453991778e+05   4.9374746048732940e+05   4.7902045878852136e+05   4.8698818632116221e+05   4.6311923699324043e+05   4.7145837138944771e+05   4.5589436674684880e+05   4.6446986103893141e+05   4.3890955106828903e+05   4.4786154353126336e+05   4.3126345640405035e+05   4.4049276729825634e+05   4.1309430050581589e+05   4.2267845556022646e+05   4.0492038180346793e+05   4.1480336796256021e+05   3.8554685786569375e+05   3.9574031356081256e+05   3.7677737886038993e+05   3.8727071353025438e+05   3.5625465337799059e+05   3.6699984752363694e+05   3.4686558002823457e+05   3.5789356316364941e+05   3.2530720201860619e+05   3.3652413731106126e+05   3.1531552785920544e+05   3.2678488701159507e+05   2.9287127568247344e+05   3.0447018831816828e+05   2.8232608129546547e+05   2.9413936070849415e+05   2.5916158762143372e+05   2.7105236757610645e+05   2.4813248987833739e+05   2.6019656009818654e+05   2.2441503800554099e+05   2.3651217785513325e+05   2.1298163849999831e+05   2.2521099924273981e+05   1.8887285626824983e+05   2.0109669153397882e+05   1.7711716372174586e+05   1.8943359856902694e+05   1.5277111810473807e+05   1.6504679492115171e+05   1.4077326167593387e+05   1.5310363918009904e+05   1.1633793655459993e+05   1.2859332807898990e+05   1.0417457552398823e+05   1.1644804627375983e+05   9.6221052775970846e+05   9.7448406819478527e+05   9.4977325861475349e+05   9.6202955601677415e+05   9.2540745877079060e+05   9.3744596876712050e+05   9.1287397838697443e+05   9.2486006177215511e+05   8.8892563193017337e+05   9.0065179861605540e+05   8.7636296194610419e+05   8.8799948065382289e+05   8.5299075713245221e+05   8.6432047809028323e+05   8.4046964816914452e+05   8.5166934601946245e+05   8.1784379297316226e+05   8.2868768382723141e+05   8.0544371365699370e+05   8.1611352258133388e+05   7.8374179068027029e+05   7.9401030465920432e+05   7.7155595037971460e+05   7.8160338101486815e+05   7.5095112739460205e+05   7.6056473371763621e+05   7.3908955328471691e+05   7.4843513665358257e+05   7.1972885665330000e+05   7.2863364529850718e+05   7.0831598705675360e+05   7.1691194153938699e+05   6.9028991315998603e+05   6.9847590921114990e+05   6.7945303048153361e+05   6.8730406614274241e+05   6.6276462753120426e+05   6.7027996998792316e+05   6.5261315267235658e+05   6.5979025176505733e+05   6.3716010027878243e+05   6.4411317912078416e+05   6.2776252101353044e+05   6.3440072866666375e+05   6.1334193562545779e+05   6.1988919525431632e+05   6.0471057856441243e+05   6.1099074192710873e+05   5.9104354419864214e+05   5.9736918301836087e+05   5.8313269225028856e+05   5.8925706747794733e+05   5.6989565510023839e+05   5.7619246045599168e+05   5.6261024788904027e+05   5.6878267036618805e+05   5.4946181872295926e+05   5.5591811239308468e+05   5.4266991613523732e+05   5.4908421117136558e+05   5.2926968094760901e+05   5.3606158353221230e+05   5.2281338727549283e+05   5.2964728849352919e+05   5.0883584457372886e+05   5.1612125178066734e+05   5.0253903921711358e+05   5.0994882930208679e+05   4.8768795548214606e+05   4.9559880742508668e+05   4.8136231666271342e+05   4.8947443219713407e+05   4.6538956406561314e+05   4.7402092112009437e+05   4.5884230443822686e+05   4.6774075775828317e+05   4.4157139942604443e+05   4.5096897868361836e+05   4.3461832058674539e+05   4.4433077103260509e+05   4.1596687219080020e+05   4.2611834704094008e+05   4.0845152973804605e+05   4.1894124795164639e+05   3.8844158658247342e+05   3.9927846925132006e+05   3.8025559053653391e+05   3.9142743359482079e+05   3.5900264311263600e+05   3.7041551269884291e+05   3.5009785447386105e+05   3.6181955822218733e+05   3.2778037239748455e+05   3.3964194649646804e+05   3.1816676608199102e+05   3.3029636313476070e+05   2.9498970914023934e+05   3.0717554942949215e+05   2.8472119516982266e+05   2.9712811880254751e+05   2.6088770687762651e+05   2.7328778618222970e+05   2.5004381603290548e+05   2.6261797726699815e+05   2.2574074275007192e+05   2.3826185170166945e+05   2.1441102180227631e+05   2.2706215386121010e+05   1.8980586798517141e+05   2.0236853795748769e+05   1.7807970130987876e+05   1.9073201926023641e+05   1.5332404117812545e+05   1.6585752155023604e+05   1.4128553119281505e+05   1.5387143817600433e+05   1.1652097222321550e+05   1.2895824135660080e+05   1.0424743179948232e+05   1.1670194396590047e+05   9.6192223169753235e+05   9.7437687229624076e+05   9.4923611760744930e+05   9.6167505641952460e+05   9.2453506340593915e+05   9.3669138724449812e+05   9.1167746429070050e+05   9.2378570553989639e+05   8.8744831523960689e+05   8.9922927157513541e+05   8.7447690792074997e+05   8.8617440984891774e+05   8.5088002959523990e+05   8.6219626380915591e+05   8.3785637206769304e+05   8.4904866562003293e+05   8.1507460342611489e+05   8.2582450901705946e+05   8.0207263202813116e+05   8.1265098481083044e+05   7.8031089154247614e+05   7.9038492305847828e+05   7.6742781908170308e+05   7.7727453661872284e+05   7.4690286812539876e+05   7.5619557330047793e+05   7.3427031114930764e+05   7.4327375792806235e+05   7.1518335507898743e+05   7.2361645860090316e+05   7.0297187174882437e+05   7.1105538983101340e+05   6.8546036888075073e+05   6.9301518433295272e+05   6.7386645641268254e+05   6.8102758899353852e+05   6.5794686102066853e+05   6.6469299490429612e+05   6.4715686668179266e+05   6.5349755092434876e+05   6.3268925957355415e+05   6.3878919294919295e+05   6.2283355986961443e+05   6.2855594333641918e+05   6.0953458404667885e+05   6.1521669826071162e+05   6.0065839321567991e+05   6.0602455711395771e+05   5.8815340769820299e+05   5.9367086830306868e+05   5.8021710309986665e+05   5.8550091506002832e+05   5.6809668346475915e+05   5.7369577059056039e+05   5.6099537595855293e+05   5.6645241496730037e+05   5.4885178857929737e+05   5.5475781642820919e+05   5.4243703342395881e+05   5.4829554009685502e+05   5.2987971108219877e+05   5.3629446623330307e+05   5.2397368323016015e+05   5.3043595955672534e+05   5.1063481620009919e+05   5.1773612370092841e+05   5.0503572907227057e+05   5.1227908468958468e+05   4.9057809197344148e+05   4.9851439656521502e+05   4.8506063136768050e+05   4.9323058460356435e+05   4.6919691563527833e+05   4.7807310645850177e+05   4.6351480142155674e+05   4.7270694255991845e+05   4.4604224012234202e+05   4.5589793981731922e+05   4.3994230674832372e+05   4.5017555635150813e+05   4.2078463869281072e+05   4.3157463302164047e+05   4.1403850481221062e+05   4.2523394878150051e+05   3.9327113085383788e+05   4.0486504331095639e+05   3.8571631540610915e+05   3.9770391073401563e+05   3.6354814467994682e+05   3.7575962799848511e+05   3.5511504116391332e+05   3.6767610992170044e+05   3.3182863166068977e+05   3.4446118862471281e+05   3.2253592649278330e+05   3.3545774185274373e+05   2.9842060827308480e+05   3.1130368072154035e+05   2.8834657676538371e+05   3.0145696319251909e+05   2.6365689642075246e+05   2.7665886780631740e+05   2.5290699083906197e+05   2.6608051503264473e+05   2.2785147028433398e+05   2.4087512779947004e+05   2.1653523608045583e+05   2.2968283425700551e+05   1.9128318467369155e+05   2.0425459198023187e+05   1.7950222834883808e+05   1.9255709006262891e+05   1.5419643654177399e+05   1.6705403564486359e+05   1.4204011271440153e+05   1.5494579440679101e+05   1.1680926828499496e+05   1.2949538236316794e+05   1.0435462769787981e+05   1.1705644356266510e+05   9.6153644999808492e+05   9.7423847476951557e+05   9.4854224567273178e+05   9.6123107567329961e+05   9.2336491446361365e+05   9.3571573086462240e+05   9.1012653063917824e+05   9.2243657465127390e+05   8.8545697540923115e+05   8.9738202775991207e+05   8.7201667811067775e+05   8.8386958559387946e+05   8.4801236761046166e+05   8.5941733951335284e+05   8.3441408740262443e+05   8.4570845817306580e+05   8.1127000850361434e+05   8.2203736281117494e+05   7.9757097045466653e+05   8.0817791178955708e+05   7.7552825441883504e+05   7.8551710782721790e+05   7.6181744061149284e+05   7.7157993920261622e+05   7.4116284904739691e+05   7.5021869670059322e+05   7.2758683586127241e+05   7.3633190987763077e+05   7.0862562674423656e+05   7.1661121230350190e+05   6.9541262884972489e+05   7.0299210957082384e+05   6.7839238615364453e+05   6.8524748199355311e+05   6.6584653924000834e+05   6.7221524458365957e+05   6.5083814939145837e+05   6.5664747782847751e+05   6.3927397941552044e+05   6.4456836298538989e+05   6.2608508673166670e+05   6.3109584632439364e+05   6.1572651551942283e+05   6.2026213288888254e+05   6.0393393466679694e+05   6.0849226541814033e+05   5.9485634651655878e+05   5.9902963676086836e+05   5.8392885310478217e+05   5.8838974607289291e+05   5.7607586383161135e+05   5.8026239271791384e+05   5.6548200857661932e+05   5.7015792050180177e+05   5.5871561929938488e+05   5.6322958088161575e+05   5.4796802514041413e+05   5.5312212535484927e+05   5.4210903450485109e+05   5.4720980521205312e+05   5.3076347450865898e+05   5.3662246513891092e+05   5.2560937428997096e+05   5.3152169442692504e+05   5.1324949107571342e+05   5.2001588034650020e+05   5.0857357914730546e+05   5.1550191876048880e+05   4.9480264655418956e+05   5.0265563581967610e+05   4.9034175358392461e+05   4.9846910693061654e+05   4.7479756500241073e+05   4.8387515314364020e+05   4.7023923425010825e+05   4.7970186289771379e+05   4.5264641295162786e+05   4.6300498415352451e+05   4.4763565335933503e+05   4.5846936678379704e+05   4.2789335030994058e+05   4.3945752027430746e+05   4.2208402187495964e+05   4.3416313670577563e+05   4.0033911356981582e+05   4.1288496047091793e+05   3.9348401773367019e+05   4.0651625513039849e+05   3.7010587300487712e+05   3.8331887088624411e+05   3.6212028745106660e+05   3.7573939017008548e+05   3.3756865073037625e+05   3.5114466390307044e+05   3.2851280308415595e+05   3.4239958989329910e+05   3.0320324538995040e+05   3.1691405918381427e+05   2.9321439198983333e+05   3.0715156060067267e+05   2.6746149133794470e+05   2.8116052937351220e+05   2.5669413703971094e+05   2.7055358804774744e+05   2.3071913226515104e+05   2.4431741245979490e+05   2.1931416037244769e+05   2.3302304169940136e+05   1.9327452450133549e+05   2.0671482178693678e+05   1.8134947216154114e+05   1.9486191431453050e+05   1.5536658548250064e+05   1.6860496929427204e+05   1.4301576909295056e+05   1.5629492529358310e+05   1.1719504998391619e+05   1.3018925429694193e+05   1.0449302522441698e+05   1.1750042430828876e+05   9.6106622582107200e+05   9.7407392963505303e+05   9.4771677806150075e+05   9.6071494396338402e+05   9.2193470594818250e+05   9.3455385537491995e+05   9.0827444510648318e+05   9.2086381140889064e+05   8.8300873596621607e+05   8.9517156316325930e+05   8.6905747520171024e+05   8.8116637076359300e+05   8.4445236963957234e+05   8.5606342549059400e+05   8.3022526743874396e+05   8.4175027241411444e+05   8.0647814555565838e+05   8.1740511303538841e+05   7.9199754977663374e+05   8.0279163442165183e+05   7.6938335645024444e+05   7.7944632384825835e+05   7.5470304265915987e+05   7.6456062055836781e+05   7.3360102680274460e+05   7.4256766336872103e+05   7.1885361319660034e+05   7.2750237108873390e+05   6.9974840383298486e+05   7.0736003765377868e+05   6.8521830127369089e+05   6.9235509320547641e+05   6.6860056520336762e+05   6.7467553462375421e+05   6.5476842136747215e+05   6.6020868345438654e+05   6.4087011030429346e+05   6.4548269794322958e+05   6.2829718928197981e+05   6.3220960875170596e+05   6.1683459038089972e+05   6.2039276010580896e+05   6.0590227200047567e+05   6.0883574805045221e+05   5.9616650194318860e+05   5.9923763500039349e+05   5.8695357196673902e+05   5.8955255130646378e+05   5.7814153154930135e+05   5.8123316136524198e+05   5.7051682377050095e+05   5.7329402584874420e+05   5.6193582250440225e+05   5.6542807451578532e+05   5.5568636656720319e+05   5.5900172090907325e+05   5.4677589680527674e+05   5.5095367341538798e+05   5.4167483118837280e+05   5.4579574133933359e+05   5.3195560282813362e+05   5.3705666843873262e+05   5.2777782621267508e+05   5.3293575828194153e+05   5.1679567713204050e+05   5.2304513306182937e+05   5.1330342511619697e+05   5.1972977871497831e+05   5.0058996809340606e+05   5.0821467586349673e+05   4.9749833827392571e+05   5.0543747378111543e+05   4.8256499770940619e+05   4.9177792767564242e+05   4.7949386464976339e+05   4.8917894833276997e+05   4.6189690928573697e+05   4.7282922765431838e+05   4.5833873955984623e+05   4.6989575160253467e+05   4.3786138938101311e+05   4.5043431038995396e+05   4.3324880174299132e+05   4.4652189092027943e+05   4.1013093450532638e+05   4.2396307832673640e+05   4.0405596508803335e+05   4.1852281624215888e+05   3.7898309590329399e+05   3.9351319844758423e+05   3.7137146208771050e+05   3.8637640652045415e+05   3.4513047296437575e+05   3.5987788655549020e+05   3.3616383640541724e+05   3.5122912867000652e+05   3.0934814335002372e+05   3.2402845712632721e+05   2.9928517596047465e+05   3.1417087923534482e+05   2.7225335427932837e+05   2.8673395004393172e+05   2.6132638680919868e+05   2.7593986540835688e+05   2.3427913023119268e+05   2.4850623241799130e+05   2.2266807439066930e+05   2.3698122745301612e+05   1.9572276394103156e+05   2.0967402469190635e+05   1.8355993675521249e+05   1.9756512914118270e+05   1.5679679399599897e+05   1.7045705482447200e+05   1.4417764458108900e+05   1.5786768853385613e+05   1.1766527416029444e+05   1.3101472190706304e+05   1.0465757035865782e+05   1.1801655601751248e+05   9.6053116050593741e+05   9.7389054322070791e+05   9.4679628071064083e+05   9.6015089002450625e+05   9.2030285095183668e+05   9.3325700751527830e+05   9.0620188374173793e+05   9.1914093978042598e+05   8.8019862682739808e+05   8.9269314068022277e+05   8.6572303277370497e+05   8.7818936717882298e+05   8.4032387568578275e+05   8.5227139444996964e+05   8.2544931383740087e+05   8.3734930918029195e+05   8.0082926532388886e+05   8.1209433910106798e+05   7.8552094220590382e+05   7.9670550224308460e+05   7.6195832644871296e+05   7.7233056650524004e+05   7.4618911165971111e+05   7.5641767462960212e+05   7.2414177706609981e+05   7.3329403712997749e+05   7.0795078498807189e+05   7.1683011246609513e+05   6.8816282880451658e+05   6.9561756093345303e+05   6.7181747868794657e+05   6.7874602253865951e+05   6.5531221796588693e+05   6.6055377177229524e+05   6.3957647761183570e+05   6.4393137091998791e+05   6.2709197764177935e+05   6.3006102268638392e+05   6.1310677785899059e+05   6.1502275525733875e+05   6.0414922301883087e+05   6.0564434175633371e+05   5.9258745711398369e+05   5.9323396674761607e+05   5.8574502801746666e+05   5.8681356977795786e+05   5.7655143586525146e+05   5.7706531760897790e+05   5.7054711507613107e+05   5.7189720001749077e+05   5.6337423630673334e+05   5.6439430617605837e+05   5.5735642795671197e+05   5.5938870199543436e+05   5.5185269235113973e+05   5.5371164558280131e+05   5.4524889749812952e+05   5.4821839230668952e+05   5.4112822731831868e+05   5.4404374288339855e+05   5.3348260211661889e+05   5.3760327228928031e+05   5.3051310730169539e+05   5.3468775671744009e+05   5.2137507166064333e+05   5.2687880725804437e+05   5.1934279761619796e+05   5.2501985402021499e+05   5.0818438454671646e+05   5.1535726330659562e+05   5.0683429960025573e+05   5.1433719343161664e+05   4.9298647161436046e+05   5.0218006375530834e+05   4.9191792984959000e+05   5.0166618200655270e+05   4.7458227662