<?xml version="1.0"?>
<VTKFile type="UnstructuredGrid"  version="0.1"  >
<UnstructuredGrid>
<Piece  NumberOfPoints="1861" NumberOfCells="3600">
<Points>
<DataArray  type="Float64"  NumberOfComponents="3"  format="ascii">0 0 0  0.03333333333333333 0 0  0.06666666666666667 0 0  0.1 0 0  0.1333333333333333 0 0  0.1666666666666667 0 0  0.2 0 0  0.2333333333333333 0 0  0.2666666666666667 0 0  0.3 0 0  0.3333333333333333 0 0  0.3666666666666666 0 0  0.4 0 0  0.4333333333333333 0 0  0.4666666666666667 0 0  0.5 0 0  0.5333333333333333 0 0  0.5666666666666667 0 0  0.6 0 0  0.6333333333333333 0 0  0.6666666666666666 0 0  0.7 0 0  0.7333333333333333 0 0  0.7666666666666667 0 0  0.8 0 0  0.8333333333333334 0 0  0.8666666666666667 0 0  0.9 0 0  0.9333333333333333 0 0  0.9666666666666667 0 0  1 0 0  0 0.03333333333333333 0  0.03333333333333333 0.03333333333333333 0  0.06666666666666667 0.03333333333333333 0  0.1 0.03333333333333333 0  0.1333333333333333 0.03333333333333333 0  0.1666666666666667 0.03333333333333333 0  0.2 0.03333333333333333 0  0.2333333333333333 0.03333333333333333 0  0.2666666666666667 0.03333333333333333 0  0.3 0.03333333333333333 0  0.3333333333333333 0.03333333333333333 0  0.3666666666666666 0.03333333333333333 0  0.4 0.03333333333333333 0  0.4333333333333333 0.03333333333333333 0  0.4666666666666667 0.03333333333333333 0  0.5 0.03333333333333333 0  0.5333333333333333 0.03333333333333333 0  0.5666666666666667 0.03333333333333333 0  0.6 0.03333333333333333 0  0.6333333333333333 0.03333333333333333 0  0.6666666666666666 0.03333333333333333 0  0.7 0.03333333333333333 0  0.7333333333333333 0.03333333333333333 0  0.7666666666666667 0.03333333333333333 0  0.8 0.03333333333333333 0  0.8333333333333334 0.03333333333333333 0  0.8666666666666667 0.03333333333333333 0  0.9 0.03333333333333333 0  0.9333333333333333 0.03333333333333333 0  0.9666666666666667 0.03333333333333333 0  1 0.03333333333333333 0  0 0.06666666666666667 0  0.03333333333333333 0.06666666666666667 0  0.06666666666666667 0.06666666666666667 0  0.1 0.06666666666666667 0  0.1333333333333333 0.06666666666666667 0  0.1666666666666667 0.06666666666666667 0  0.2 0.06666666666666667 0  0.2333333333333333 0.06666666666666667 0  0.2666666666666667 0.06666666666666667 0  0.3 0.06666666666666667 0  0.3333333333333333 0.06666666666666667 0  0.3666666666666666 0.06666666666666667 0  0.4 0.06666666666666667 0  0.4333333333333333 0.06666666666666667 0  0.4666666666666667 0.06666666666666667 0  0.5 0.06666666666666667 0  0.5333333333333333 0.06666666666666667 0  0.5666666666666667 0.06666666666666667 0  0.6 0.06666666666666667 0  0.6333333333333333 0.06666666666666667 0  0.6666666666666666 0.06666666666666667 0  0.7 0.06666666666666667 0  0.7333333333333333 0.06666666666666667 0  0.7666666666666667 0.06666666666666667 0  0.8 0.06666666666666667 0  0.8333333333333334 0.06666666666666667 0  0.8666666666666667 0.06666666666666667 0  0.9 0.06666666666666667 0  0.9333333333333333 0.06666666666666667 0  0.9666666666666667 0.06666666666666667 0  1 0.06666666666666667 0  0 0.1 0  0.03333333333333333 0.1 0  0.06666666666666667 0.1 0  0.1 0.1 0  0.1333333333333333 0.1 0  0.1666666666666667 0.1 0  0.2 0.1 0  0.2333333333333333 0.1 0  0.2666666666666667 0.1 0  0.3 0.1 0  0.3333333333333333 0.1 0  0.3666666666666666 0.1 0  0.4 0.1 0  0.4333333333333333 0.1 0  0.4666666666666667 0.1 0  0.5 0.1 0  0.5333333333333333 0.1 0  0.5666666666666667 0.1 0  0.6 0.1 0  0.6333333333333333 0.1 0  0.6666666666666666 0.1 0  0.7 0.1 0  0.7333333333333333 0.1 0  0.7666666666666667 0.1 0  0.8 0.1 0  0.8333333333333334 0.1 0  0.8666666666666667 0.1 0  0.9 0.1 0  0.9333333333333333 0.1 0  0.9666666666666667 0.1 0  1 0.1 0  0 0.1333333333333333 0  0.03333333333333333 0.1333333333333333 0  0.06666666666666667 0.1333333333333333 0  0.1 0.1333333333333333 0  0.1333333333333333 0.1333333333333333 0  0.1666666666666667 0.1333333333333333 0  0.2 0.1333333333333333 0  0.2333333333333333 0.1333333333333333 0  0.2666666666666667 0.1333333333333333 0  0.3 0.1333333333333333 0  0.3333333333333333 0.1333333333333333 0  0.3666666666666666 0.1333333333333333 0  0.4 0.1333333333333333 0  0.4333333333333333 0.1333333333333333 0  0.4666666666666667 0.1333333333333333 0  0.5 0.1333333333333333 0  0.5333333333333333 0.1333333333333333 0  0.5666666666666667 0.1333333333333333 0  0.6 0.1333333333333333 0  0.6333333333333333 0.1333333333333333 0  0.6666666666666666 0.1333333333333333 0  0.7 0.1333333333333333 0  0.7333333333333333 0.1333333333333333 0  0.7666666666666667 0.1333333333333333 0  0.8 0.1333333333333333 0  0.8333333333333334 0.1333333333333333 0  0.8666666666666667 0.1333333333333333 0  0.9 0.1333333333333333 0  0.9333333333333333 0.1333333333333333 0  0.9666666666666667 0.1333333333333333 0  1 0.1333333333333333 0  0 0.1666666666666667 0  0.03333333333333333 0.1666666666666667 0  0.06666666666666667 0.1666666666666667 0  0.1 0.1666666666666667 0  0.1333333333333333 0.1666666666666667 0  0.1666666666666667 0.1666666666666667 0  0.2 0.1666666666666667 0  0.2333333333333333 0.1666666666666667 0  0.2666666666666667 0.1666666666666667 0  0.3 0.1666666666666667 0  0.3333333333333333 0.1666666666666667 0  0.3666666666666666 0.1666666666666667 0  0.4 0.1666666666666667 0  0.4333333333333333 0.1666666666666667 0  0.4666666666666667 0.1666666666666667 0  0.5 0.1666666666666667 0  0.5333333333333333 0.1666666666666667 0  0.5666666666666667 0.1666666666666667 0  0.6 0.1666666666666667 0  0.6333333333333333 0.1666666666666667 0  0.6666666666666666 0.1666666666666667 0  0.7 0.1666666666666667 0  0.7333333333333333 0.1666666666666667 0  0.7666666666666667 0.1666666666666667 0  0.8 0.1666666666666667 0  0.8333333333333334 0.1666666666666667 0  0.8666666666666667 0.1666666666666667 0  0.9 0.1666666666666667 0  0.9333333333333333 0.1666666666666667 0  0.9666666666666667 0.1666666666666667 0  1 0.1666666666666667 0  0 0.2 0  0.03333333333333333 0.2 0  0.06666666666666667 0.2 0  0.1 0.2 0  0.1333333333333333 0.2 0  0.1666666666666667 0.2 0  0.2 0.2 0  0.2333333333333333 0.2 0  0.2666666666666667 0.2 0  0.3 0.2 0  0.3333333333333333 0.2 0  0.3666666666666666 0.2 0  0.4 0.2 0  0.4333333333333333 0.2 0  0.4666666666666667 0.2 0  0.5 0.2 0  0.5333333333333333 0.2 0  0.5666666666666667 0.2 0  0.6 0.2 0  0.6333333333333333 0.2 0  0.6666666666666666 0.2 0  0.7 0.2 0  0.7333333333333333 0.2 0  0.7666666666666667 0.2 0  0.8 0.2 0  0.8333333333333334 0.2 0  0.8666666666666667 0.2 0  0.9 0.2 0  0.9333333333333333 0.2 0  0.9666666666666667 0.2 0  1 0.2 0  0 0.2333333333333333 0  0.03333333333333333 0.2333333333333333 0  0.06666666666666667 0.2333333333333333 0  0.1 0.2333333333333333 0  0.1333333333333333 0.2333333333333333 0  0.1666666666666667 0.2333333333333333 0  0.2 0.2333333333333333 0  0.2333333333333333 0.2333333333333333 0  0.2666666666666667 0.2333333333333333 0  0.3 0.2333333333333333 0  0.3333333333333333 0.2333333333333333 0  0.3666666666666666 0.2333333333333333 0  0.4 0.2333333333333333 0  0.4333333333333333 0.2333333333333333 0  0.4666666666666667 0.2333333333333333 0  0.5 0.2333333333333333 0  0.5333333333333333 0.2333333333333333 0  0.5666666666666667 0.2333333333333333 0  0.6 0.2333333333333333 0  0.6333333333333333 0.2333333333333333 0  0.6666666666666666 0.2333333333333333 0  0.7 0.2333333333333333 0  0.7333333333333333 0.2333333333333333 0  0.7666666666666667 0.2333333333333333 0  0.8 0.2333333333333333 0  0.8333333333333334 0.2333333333333333 0  0.8666666666666667 0.2333333333333333 0  0.9 0.2333333333333333 0  0.9333333333333333 0.2333333333333333 0  0.9666666666666667 0.2333333333333333 0  1 0.2333333333333333 0  0 0.2666666666666667 0  0.03333333333333333 0.2666666666666667 0  0.06666666666666667 0.2666666666666667 0  0.1 0.2666666666666667 0  0.1333333333333333 0.2666666666666667 0  0.1666666666666667 0.2666666666666667 0  0.2 0.2666666666666667 0  0.2333333333333333 0.2666666666666667 0  0.2666666666666667 0.2666666666666667 0  0.3 0.2666666666666667 0  0.3333333333333333 0.2666666666666667 0  0.3666666666666666 0.2666666666666667 0  0.4 0.2666666666666667 0  0.4333333333333333 0.2666666666666667 0  0.4666666666666667 0.2666666666666667 0  0.5 0.2666666666666667 0  0.5333333333333333 0.2666666666666667 0  0.5666666666666667 0.2666666666666667 0  0.6 0.2666666666666667 0  0.6333333333333333 0.2666666666666667 0  0.6666666666666666 0.2666666666666667 0  0.7 0.2666666666666667 0  0.7333333333333333 0.2666666666666667 0  0.7666666666666667 0.2666666666666667 0  0.8 0.2666666666666667 0  0.8333333333333334 0.2666666666666667 0  0.8666666666666667 0.2666666666666667 0  0.9 0.2666666666666667 0  0.9333333333333333 0.2666666666666667 0  0.9666666666666667 0.2666666666666667 0  1 0.2666666666666667 0  0 0.3 0  0.03333333333333333 0.3 0  0.06666666666666667 0.3 0  0.1 0.3 0  0.1333333333333333 0.3 0  0.1666666666666667 0.3 0  0.2 0.3 0  0.2333333333333333 0.3 0  0.2666666666666667 0.3 0  0.3 0.3 0  0.3333333333333333 0.3 0  0.3666666666666666 0.3 0  0.4 0.3 0  0.4333333333333333 0.3 0  0.4666666666666667 0.3 0  0.5 0.3 0  0.5333333333333333 0.3 0  0.5666666666666667 0.3 0  0.6 0.3 0  0.6333333333333333 0.3 0  0.6666666666666666 0.3 0  0.7 0.3 0  0.7333333333333333 0.3 0  0.7666666666666667 0.3 0  0.8 0.3 0  0.8333333333333334 0.3 0  0.8666666666666667 0.3 0  0.9 0.3 0  0.9333333333333333 0.3 0  0.9666666666666667 0.3 0  1 0.3 0  0 0.3333333333333333 0  0.03333333333333333 0.3333333333333333 0  0.06666666666666667 0.3333333333333333 0  0.1 0.3333333333333333 0  0.1333333333333333 0.3333333333333333 0  0.1666666666666667 0.3333333333333333 0  0.2 0.3333333333333333 0  0.2333333333333333 0.3333333333333333 0  0.2666666666666667 0.3333333333333333 0  0.3 0.3333333333333333 0  0.3333333333333333 0.3333333333333333 0  0.3666666666666666 0.3333333333333333 0  0.4 0.3333333333333333 0  0.4333333333333333 0.3333333333333333 0  0.4666666666666667 0.3333333333333333 0  0.5 0.3333333333333333 0  0.5333333333333333 0.3333333333333
[...]
<PointData  Vectors="f_20-0"> 
<DataArray  type="Float64"  Name="f_20-0"  NumberOfComponents="3" format="ascii">1.0773105586352856e-07 -8.1868796320315043e-11 0.0000000000000000e+00  1.0740208523456254e-07 -8.2610475016145876e-11 0.0000000000000000e+00  1.0640982558963222e-07 -8.4541780431414672e-11 0.0000000000000000e+00  1.0474066489699817e-07 -8.6741611422930554e-11 0.0000000000000000e+00  1.0238026242268778e-07 -8.7580701029301407e-11 0.0000000000000000e+00  9.9326585558927068e-08 -8.4724692333822785e-11 0.0000000000000000e+00  9.5608009015052859e-08 -7.5426326765752348e-11 0.0000000000000000e+00  9.1303754067336104e-08 -5.7293781334123008e-11 0.0000000000000000e+00  8.6560664122341934e-08 -2.9457996820370875e-11 0.0000000000000000e+00  8.1598127044149248e-08 6.4314333464848048e-12 0.0000000000000000e+00  7.6694897105569220e-08 4.6223332671251181e-11 0.0000000000000000e+00  7.2158595809528940e-08 8.4602597184739898e-11 0.0000000000000000e+00  6.8287011575363284e-08 1.1697210453465676e-10 0.0000000000000000e+00  6.5333717600208844e-08 1.4063810983043263e-10 0.0000000000000000e+00  6.3486372037865870e-08 1.5474574149836463e-10 0.0000000000000000e+00  6.2858079174051984e-08 1.5939679075030995e-10 0.0000000000000000e+00  6.3486372027779335e-08 1.5474574417819159e-10 0.0000000000000000e+00  6.5333717580055918e-08 1.4063811504172343e-10 0.0000000000000000e+00  6.8287011545152160e-08 1.1697211194129813e-10 0.0000000000000000e+00  7.2158595769407742e-08 8.4602606337989684e-11 0.0000000000000000e+00  7.6694897055821784e-08 4.6223342962913248e-11 0.0000000000000000e+00  8.1598126985259348e-08 6.4314441200821494e-12 0.0000000000000000e+00  8.6560664054989540e-08 -2.9457986220296170e-11 0.0000000000000000e+00  9.1303753992393925e-08 -5.7293771464905388e-11 0.0000000000000000e+00  9.5608008933532171e-08 -7.5426318021791529e-11 0.0000000000000000e+00  9.9326585471908634e-08 -8.4724684955080554e-11 0.0000000000000000e+00  1.0238026233125544e-07 -8.7580695122543619e-11 0.0000000000000000e+00  1.0474066480221703e-07 -8.6741607008777168e-11 0.0000000000000000e+00  1.0640982549250282e-07 -8.4541777484984095e-11 0.0000000000000000e+00  1.0740208513604588e-07 -8.2610473500221599e-11 0.0000000000000000e+00  1.0773105576455477e-07 8.1868796205674427e-11 0.0000000000000000e+00  1.0805960723890517e-07 -8.0541356532236435e-11 0.0000000000000000e+00  1.0773341457322300e-07 5.7498611243300178e-10 0.0000000000000000e+00  1.0674828169181365e-07 1.2400999182966531e-09 0.0000000000000000e+00  1.0508683951693221e-07 1.9221349928203591e-09 0.0000000000000000e+00  1.0272819877629189e-07 2.6190477382980344e-09 0.0000000000000000e+00  9.9661148507481330e-08 3.3137649835308674e-09 0.0000000000000000e+00  9.5903589696198641e-08 3.9692215603297200e-09 0.0000000000000000e+00  9.1526045911288244e-08 4.5268594356425869e-09 0.0000000000000000e+00  8.6672703060952272e-08 4.9122932899043074e-09 0.0000000000000000e+00  8.1569604445439554e-08 5.0502222404959010e-09 0.0000000000000000e+00  7.6511078142004300e-08 4.8854360329450160e-09 0.0000000000000000e+00  7.1824521687221513e-08 4.4006435150805263e-09 0.0000000000000000e+00  6.7825229699650284e-08 3.6213128668935902e-09 0.0000000000000000e+00  6.4777682479258200e-08 2.6057689252652502e-09 0.0000000000000000e+00  6.2873685118282850e-08 1.4285340986136762e-09 0.0000000000000000e+00  6.2226625352249618e-08 1.6707790787522344e-10 0.0000000000000000e+00  6.2873685108189341e-08 -1.1032982423444401e-09 0.0000000000000000e+00  6.4777682459043322e-08 -2.3082586288456967e-09 0.0000000000000000e+00  6.7825229669377075e-08 -3.3722277971059814e-09 0.0000000000000000e+00  7.1824521646961071e-08 -4.2207343810424662e-09 0.0000000000000000e+00  7.6511078092020410e-08 -4.7903587534951057e-09 0.0000000000000000e+00  8.1569604386199631e-08 -5.0442707605603748e-09 0.0000000000000000e+00  8.6672702993158441e-08 -4.9855163779233573e-09 0.0000000000000000e+00  9.1526045835840015e-08 -4.6584841765448503e-09 0.0000000000000000e+00  9.5903589614143820e-08 -4.1352894325202947e-09 0.0000000000000000e+00  9.9661148419918227e-08 -3.4940378125424604e-09 0.0000000000000000e+00  1.0272819868433250e-07 -2.8002073950577764e-09 0.0000000000000000e+00  1.0508683942164430e-07 -2.0976453139220894e-09 0.0000000000000000e+00  1.0674828159420065e-07 -1.4085060925260188e-09 0.0000000000000000e+00  1.0773341447424296e-07 -7.3802699871791809e-10 0.0000000000000000e+00  1.0805960713947276e-07 8.0541356420864838e-11 0.0000000000000000e+00  1.0903823597244785e-07 -7.7174981416554563e-11 0.0000000000000000e+00  1.0872174604949786e-07 1.2223099208159940e-09 0.0000000000000000e+00  1.0776229446755353e-07 2.5462766685070923e-09 0.0000000000000000e+00  1.0613164067918190e-07 3.9136186795698304e-09 0.0000000000000000e+00  1.0378925968613040e-07 5.3244501176517445e-09 0.0000000000000000e+00  1.0069503496983101e-07 6.7477277594203501e-09 0.0000000000000000e+00  9.6831792828724518e-08 8.1087655001560589e-09 0.0000000000000000e+00  9.2238434155868298e-08 9.2828572133920461e-09 0.0000000000000000e+00  8.7046547516919706e-08 1.0104978716207964e-08 0.0000000000000000e+00  8.1502325573844319e-08 1.0403456671149775e-08 0.0000000000000000e+00  7.5953056261706668e-08 1.0052250731273027e-08 0.0000000000000000e+00  7.0794181226917731e-08 9.0168959896429978e-09 0.0000000000000000e+00  6.6399103080300895e-08 7.3644368303288146e-09 0.0000000000000000e+00  6.3064809289077573e-08 5.2328198528583599e-09 0.0000000000000000e+00  6.0991398047115501e-08 2.7859904602236252e-09 0.0000000000000000e+00  6.0288795580714899e-08 1.8348968582892172e-10 0.0000000000000000e+00  6.0991398037033876e-08 -2.4264130690649430e-09 0.0000000000000000e+00  6.3064809268864521e-08 -4.8980932731786225e-09 0.0000000000000000e+00  6.6399103049873936e-08 -7.0785431718194322e-09 0.0000000000000000e+00  7.0794181186266410e-08 -8.8094336385029436e-09 0.0000000000000000e+00  7.5953056211015333e-08 -9.9496625071845596e-09 0.0000000000000000e+00  8.1502325513557755e-08 -1.0415011578155101e-08 0.0000000000000000e+00  8.7046547447771404e-08 -1.0214723779014524e-08 0.0000000000000000e+00  9.2238434078854090e-08 -9.4567166187320300e-09 0.0000000000000000e+00  9.6831792745004629e-08 -8.3107958315022391e-09 0.0000000000000000e+00  1.0069503488060779e-07 -6.9520601967359099e-09 0.0000000000000000e+00  1.0378925959257394e-07 -5.5178215044891534e-09 0.0000000000000000e+00  1.0613164058238370e-07 -4.0922830663150188e-09 0.0000000000000000e+00  1.0776229436851292e-07 -2.7120138892439861e-09 0.0000000000000000e+00  1.0872174594914093e-07 -1.3795774923984409e-09 0.0000000000000000e+00  1.0903823587165827e-07 7.7174981313640060e-11 0.0000000000000000e+00  1.1064643107155247e-07 -7.0850314756463423e-11 0.0000000000000000e+00  1.1034988582003542e-07 1.8437803330399967e-09 0.0000000000000000e+00  1.0944528070656392e-07 3.8060191892557384e-09 0.0000000000000000e+00  1.0788795533242331e-07 5.8564452878195282e-09 0.0000000000000000e+00  1.0560565451106551e-07 8.0099866450294255e-09 0.0000000000000000e+00  1.0250712113268063e-07 1.0235143772198368e-08 0.0000000000000000e+00  9.8505940572180473e-08 1.2427802942838310e-08 0.0000000000000000e+00  9.3569527378530185e-08 1.4389080408639898e-08 0.0000000000000000e+00  8.7790830834295809e-08 1.5829041194764392e-08 0.0000000000000000e+00  8.1448664863995168e-08 1.6422790952819441e-08 0.0000000000000000e+00  7.5000434364321704e-08 1.5921456491572951e-08 0.0000000000000000e+00  6.8986217569619744e-08 1.4262465422730286e-08 0.0000000000000000e+00  6.3895225880846396e-08 1.1590520215363097e-08 0.0000000000000000e+00  6.0075834166591245e-08 8.1736067158596427e-09 0.0000000000000000e+00  5.7725988928190125e-08 4.2967868274024160e-09 0.0000000000000000e+00  5.6934724046891074e-08 2.0682872627279129e-10 0.0000000000000000e+00  5.7725988918195169e-08 -3.8861627762496575e-09 0.0000000000000000e+00  6.0075834146445109e-08 -7.7776449101291636e-09 0.0000000000000000e+00  6.3895225850292171e-08 -1.1236717971784386e-08 0.0000000000000000e+00  6.8986217528425911e-08 -1.3998297375791920e-08 0.0000000000000000e+00  7.5000434312488013e-08 -1.5800387625276158e-08 0.0000000000000000e+00  8.1448664801902809e-08 -1.6469214062941783e-08 0.0000000000000000e+00  8.7790830762778382e-08 -1.6012579549983000e-08 0.0000000000000000e+00  9.3569527298780180e-08 -1.4643235360015048e-08 0.0000000000000000e+00  9.8505940485582366e-08 -1.2691927135183578e-08 0.0000000000000000e+00  1.0250712104062269e-07 -1.0476139000445416e-08 0.0000000000000000e+00  1.0560565441482177e-07 -8.2186015905121534e-09 0.0000000000000000e+00  1.0788795523311418e-07 -6.0360129887245582e-09 0.0000000000000000e+00  1.0944528060516665e-07 -3.9643821968701680e-09 0.0000000000000000e+00  1.1034988571743111e-07 -1.9896019682336362e-09 0.0000000000000000e+00  1.1064643096854703e-07 7.0850314662853048e-11 0.0000000000000000e+00  1.1284272513423886e-07 -6.0441235182258154e-11 0.0000000000000000e+00  1.1258110109247547e-07 2.4158858448284312e-09 0.0000000000000000e+00  1.1177623032610542e-07 4.9734884867540056e-09 0.0000000000000000e+00  1.1036567098066213e-07 7.6886105588773397e-09 0.0000000000000000e+00  1.0823834326896222e-07 1.0611764247866186e-08 0.0000000000000000e+00  1.0523001480546951e-07 1.3738589903621531e-08 0.0000000000000000e+00  1.0113637940924239e-07 1.6961490111960702e-08 0.0000000000000000e+00  9.5775952438901935e-08 2.0008934994626244e-08 0.0000000000000000e+00  8.9131268420987761e-08 2.2411703364581255e-08 0.0000000000000000e+00  8.1516074427216887e-08 2.3571195437438068e-08 0.0000000000000000e+00  7.3603833355352918e-08 2.2986475666383551e-08 0.0000000000000000e+00  6.6228904509994871e-08 2.0541990852334477e-08 0.0000000000000000e+00  6.0093188398076873e-08 1.6562571079705999e-08 0.0000000000000000e+00  5.5599241756759611e-08 1.1566193438870346e-08 0.0000000000000000e+00  5.2891997427219461e-08 6.0138193333437502e-09 0.0000000000000000e+00  5.1991152641676838e-08 2.3227197376817615e-10 0.0000000000000000e+00  5.2891997417481176e-08 -5.5423578454730324e-09 0.0000000000000000e+00  5.5599241736957801e-08 -1.1082580455797831e-08 0.0000000000000000e+00  6.0093188367638757e-08 -1.6091345258574445e-08 0.0000000000000000e+00  6.6228904468291376e-08 -2.0160846111440196e-08 0.0000000000000000e+00  7.3603833302014499e-08 -2.2816730945163261e-08 0.0000000000000000e+00  8.1516074362487330e-08 -2.3686856806005807e-08 0.0000000000000000e+00  8.9131268345870907e-08 -2.2744196836502546e-08 0.0000000000000000e+00  9.5775952354998266e-08 -2.0407577612697571e-08 0.0000000000000000e+00  1.0113637931836629e-07 -1.7319518169742171e-08 0.0000000000000000e+00  1.0523001470929701e-07 -1.4023345212088897e-08 0.0000000000000000e+00  1.0823834316891076e-07 -1.0830951577133013e-08 0.0000000000000000e+00  1.1036567087786428e-07 -7.8606861461110584e-09 0.0000000000000000e+00  1.1177623022148127e-07 -5.1156782348196626e-09 0.0000000000000000e+00  1.1258110098681619e-07 -2.5418727262157769e-09 0.0000000000000000e+00  1.1284272502823829e-07 6.0441235105535498e-11 0.0000000000000000e+00  1.1555574485750732e-07 -4.5076414816236728e-11 0.0000000000000000e+00  1.1534861026932308e-07 2.9051964956305640e-09 0.0000000000000000e+00  1.1470476383806139e-07 5.9795253438703118e-09 0.0000000000000000e+00  1.1355090416623128e-07 9.3041815714981157e-09 0.0000000000000000e+00  1.1174402452859497e-07 1.2993174076953140e-08 0.0000000000000000e+00  1.0903946618833693e-07 1.7118128526155925e-08 0.0000000000000000e+00  1.0505933353950602e-07 2.1634833320921273e-08 0.0000000000000000e+00  9.9326069943596766e-08 2.6246811488113455e-08 0.0000000000000000e+00  9.1510039674579963e-08 3.0250509329570769e-08 0.0000000000000000e+00  8.1910368995577547e-08 3.2535811904489095e-08 0.0000000000000000e+00  7.1643569254201113e-08 3.1996100400966057e-08 0.0000000000000000e+00  6.2175251657548709e-08 2.8387170917427383e-08 0.0000000000000000e+00  5.4604173928442987e-08 2.2535935963902345e-08 0.0000000000000000e+00  4.9316518152825869e-08 1.5489165468093968e-08 0.0000000000000000e+00  4.6249519776169988e-08 7.9440934343070726e-09 0.0000000000000000e+00  4.5249280347151140e-08 2.4950883417735046e-10 0.0000000000000000e+00  4.6249519767015766e-08 -7.4204667444827999e-09 0.0000000000000000e+00  4.9316518133967786e-08 -1.4898156452447303e-08 0.0000000000000000e+00  5.4604173898817401e-08 -2.1870271674212716e-08 0.0000000000000000e+00  6.2175251615776379e-08 -2.7750990219555835e-08 0.0000000000000000e+00  7.1643569199137037e-08 -3.1679777165759069e-08 0.0000000000000000e+00  8.1910368927171153e-08 -3.2803972331949179e-08 0.0000000000000000e+00  9.1510039594194578e-08 -3.0910041255781338e-08 0.0000000000000000e+00  9.9326069853665517e-08 -2.6899090984623964e-08 0.0000000000000000e+00  1.0505933344263291e-07 -2.2111660470931833e-08 0.0000000000000000e+00  1.0903946608664326e-07 -1.7433930532852817e-08 0.0000000000000000e+00  1.1174402442361249e-07 -1.3202792293486423e-08 0.0000000000000000e+00  1.1355090405903926e-07 -9.4513264165529374e-09 0.0000000000000000e+00  1.1470476372944305e-07 -6.0920769386864090e-09 0.0000000000000000e+00  1.1534861015990769e-07 -3.0005445450100903e-09 0.0000000000000000e+00  1.1555574474783671e-07 4.5076414759909037e-11 0.0000000000000000e+00  1.1867587255535078e-07 -2.4770976798409361e-11 0.0000000000000000e+00  1.1854470859369101e-07 3.2701479142087805e-09 0.0000000000000000e+00  1.1813210096273593e-07 6.7337139063697795e-09 0.0000000000000000e+00  1.1737242292578213e-07 1.0549519888942179e-08 0.0000000000000000e+00  1.1612394206368654e-07 1.4921320499006327e-08 0.0000000000000000e+00  1.1410197181451112e-07 2.0065236645547391e-08 0.0000000000000000e+00  1.1074955897749544e-07 2.6141031213261405e-08 0.0000000000000000e+00  1.0507132304220390e-07 3.3014221183693297e-08 0.0000000000000000e+00  9.5835424126182671e-08 3.9787866964363795e-08 0.0000000000000000e+00  8.3033515792190014e-08 4.4486968544210605e-08 0.0000000000000000e+00  6.8812933325827175e-08 4.4300606143863114e-08 0.0000000000000000e+00  5.6081967783948876e-08 3.8490190555934686e-08 0.0000000000000000e+00  4.6757829918111839e-08 2.9628934281083045e-08 0.0000000000000000e+00  4.0804401871610056e-08 1.9849565262544221e-08 0.0000000000000000e+00  3.7558308271679303e-08 9.9956479436356410e-09 0.0000000000000000e+00  3.6531011399379136e-08 2.4146810265876757e-10 0.0000000000000000e+00  3.7558308263672440e-08 -9.4664229728169651e-09 0.0000000000000000e+00  4.0804401854782106e-08 -1.9170967548383364e-08 0.0000000000000000e+00  4.6757829890758273e-08 -2.8686192885986197e-08 0.0000000000000000e+00  5.6081967743385805e-08 -3.7283806863024436e-08 0.0000000000000000e+00  6.8812933269197199e-08 -4.3447384917140285e-08 0.0000000000000000e+00  8.3033515718648615e-08 -4.5180469722366299e-08 0.0000000000000000e+00  9.5835424037917205e-08 -4.1267257210030264e-08 0.0000000000000000e+00  1.0507132294353014e-07 -3.4058588076694626e-08 0.0000000000000000e+00  1.1074955887249799e-07 -2.6696171358529698e-08 0.0000000000000000e+00  1.1410197170579405e-07 -2.0350872968586100e-08 0.0000000000000000e+00  1.1612394195272353e-07 -1.5077788443780913e-08 0.0000000000000000e+00  1.1737242281342273e-07 -1.0644935232163475e-08 0.0000000000000000e+00  1.1813210084951291e-07 -6.8000928911244773e-09 0.0000000000000000e+00  1.1854470847999918e-07 -3.3234482996381101e-09 0.0000000000000000e+00  1.1867587244150815e-07 2.4770976773501299e-11 0.0000000000000000e+00  1.2205237346588862e-07 -9.7766080158066435e-13 0.0000000000000000e+00  1.2201503730327964e-07 3.4683900380439557e-09 0.0000000000000000e+00  1.2189478741694656e-07 7.1393582653885483e-09 0.0000000000000000e+00  1.2166070805449492e-07 1.1242265884445252e-08 0.0000000000000000e+00  1.2123424523883523e-07 1.6072295288761524e-08 0.0000000000000000e+00  1.2041735033612132e-07 2.2040693471237678e-08 0.0000000000000000e+00  1.1868242655280982e-07 2.9720159168760593e-08 0.0000000000000000e+00  1.1455239574456492e-07 3.9682272035190942e-08 0.0000000000000000e+00  1.0427436383505953e-07 5.1223283222225727e-08 0.0000000000000000e+00  8.5523322879015715e-08 6.1524016314977772e-08 0.0000000000000000e+00  6.4290168844364637e-08 6.3007450836471817e-08 0.0000000000000000e+00  4.6170635994161693e-08 5.1398345342930145e-08 0.0000000000000000e+00  3.5476517441368807e-08 3.7406825493192516e-08 0.0000000000000000e+00  2.9630286053689832e-08 2.4183814481808500e-08 0.0000000000000000e+00  2.6704403170239628e-08 1.1915152884613910e-08 0.0000000000000000e+00  2.5812139021134257e-08 1.8917622852849565e-10 0.0000000000000000e+00  2.6704403164156036e-08 -1.1481124281125873e-08 0.0000000000000000e+00  2.9630286040609972e-08 -2.3544767800526483e-08 0.0000000000000000e+00  3.5476517419058541e-08 -3.6266789379651872e-08 0.0000000000000000e+00  4.6170635958126152e-08 -4.9164585925252483e-08 0.0000000000000000e+00  6.4290168787209514e-08 -5.9636421942251108e-08 0.0000000000000000e+00  8.5523322798219849e-08 -6.4302527009924958e-08 0.0000000000000000e+00  1.0427436373399705e-07 -5.4896097042521198e-08 0.0000000000000000e+00  1.1455239563288225e-07 -4.0934391011751077e-08 0.0000000000000000e+00  1.1868242643718739e-07 -3.0103248672541184e-08 0.0000000000000000e+00  1.2041735021900655e-07 -2.2163384163361078e-08 0.0000000000000000e+00  1.2123424512109196e-07 -1.6113816902961132e-08 0.0000000000000000e+00  1.2166070793645087e-07 -1.1257010313643796e-08 0.0000000000000000e+00  1.2189478729873962e-07 -7.1450139051423154e-09 0.0000000000000000e+00  1.2201503718499512e-07 -3.4710450011953980e-09 0.0000000000000000e+00  1.2205237334757422e-07 9.7766080668933182e-13 0.0000000000000000e+00  1.2550109305351636e-07 2.3388959971163014e-11 0.0000000000000000e+00  1.2556493810303757e-07 3.4694863498743230e-09 0.0000000000000000e+00  1.2576442459081781e-07 7.1234113755977674e-09 0.0000000000000000e+00  1.2612452595305810e-07 1.1226878306007255e-08 0.0000000000000000e+00  1.2668954212609357e-07 1.6114558131445293e-08 0.0000000000000000e+00  1.2751910505519304e-07 2.2328182610775353e-08 0.0000000000000000e+00  1.2863210935710947e-07 3.0889810163965838e-08 0.0000000000000000e+00  1.2957332908183158e-07 4.3981330434716983e-08 0.0000000000000000e+00  1.2565769045467785e-07 6.5315379386394617e-08 0.0000000000000000e+00  7.9896797346867875e-08 7.6715594208458322e-08 0.0000000000000000e+00  5.1863654059366563e-08 9.3836599341355756e-08 0.0000000000000000e+00  2.8265008020671023e-08 6.5189145103004539e-08 0.0000000000000000e+00  1.9599477621620780e-08 4.4063709979987421e-08 0.0000000000000000e+00  1.5707595629394797e-08 2.7502544027402768e-08 0.0000000000000000e+00  1.3914389678753384e-08 1.3286815915627729e-08 0.0000000000000000e+00  1.3384595151830034e-08 8.6671889996282665e-11 0.0000000000000000e+00  1.3914389675440139e-08 -1.3081149095249622e-08 0.0000000000000000e+00  1.5707595622120604e-08 -2.7166131538381611e-08 0.0000000000000000e+00  1.9599477608627820e-08 -4.3320424748970742e-08 0.0000000000000000e+00  2.8265007997176698e-08 -6.2878110006606517e-08 0.0000000000000000e+00  5.1863654009452222e-08 -8.3622255690655807e-08 0.0000000000000000e+00  7.9896797267591283e-08 -1.1444595432747091e-07 0.0000000000000000e+00  1.2565769032623938e-07 -6.8658653815166103e-08 0.0000000000000000e+00  1.2957332895120899e-07 -4.3813358448109227e-08 0.0000000000000000e+00  1.2863210922884253e-07 -3.0622981560573716e-08 0.0000000000000000e+00  1.2751910492896382e-07 -2.2149342813150562e-08 0.0000000000000000e+00  1.2668954200129581e-07 -1.5997885855548290e-08 0.0000000000000000e+00  1.2612452582920282e-07 -1.1146514901220581e-08 0.0000000000000000e+00  1.2576442446755805e-07 -7.0633022828154060e-09 0.0000000000000000e+00  1.2556493798010472e-07 -3.4195929622609428e-09 0.0000000000000000e+00  1.2550109293068274e-07 -2.3388959932305377e-11 0.0000000000000000e+00  1.2882470504814875e-07 4.4776257534709171e-11 0.0000000000000000e+00  1.2898198320363278e-07 3.2684456962958105e-09 0.0000000000000000e+00  1.2947673936618121e-07 6.6720479439052271e-09 0.0000000000000000e+00  1.303867765